% Model:              Piano Soundboard.mph
% Version:            COMSOL 6.1.0.282
% Date:               Dec 30 2022, 22:51
% Table:              Table 3 - Point Probe 1
% test_x (m)                                      test_y (m)                                        freq (Hz)                                         Zdb, Point: 5                                     Z (N*s/m), Point: 5
0.05                                              0.05                                              300                                               63.65676625612843                                 39.43485342678445-1522.974993055676i
0.05                                              0.05                                              302                                               63.42574812903032                                 23.83550796327658-1483.3080115370426i
0.05                                              0.05                                              304                                               63.24042328087468                                 20.392120433313078-1452.0391994557137i
0.05                                              0.05                                              306                                               63.0567311423603                                  23.18628819964228-1421.6045360516723i
0.05                                              0.05                                              308                                               62.83328865530517                                 38.87689763262414-1385.1392609113507i
0.05                                              0.05                                              310                                               62.708903945874724                                115.78216151665511-1361.0669389472814i
0.05                                              0.05                                              312                                               63.441407598721554                                98.64926721120848-1482.8987864968074i
0.05                                              0.05                                              314                                               63.2379306043443                                  34.29650795852997-1451.3605293052876i
0.05                                              0.05                                              316                                               63.04273389444336                                 20.059110248710347-1419.3625066916602i
0.05                                              0.05                                              318                                               62.89239813795475                                 15.637166423517671-1395.059163233647i
0.05                                              0.05                                              320                                               62.76028706828746                                 14.197411102559045-1374.014040251533i
0.05                                              0.05                                              322                                               62.63215766500777                                 14.299879811979295-1353.8908721782539i
0.05                                              0.05                                              324                                               62.496853445792546                                15.949834302268199-1332.9430141169807i
0.05                                              0.05                                              326                                               62.33917473529881                                 20.506294446961505-1308.896916085863i
0.05                                              0.05                                              328                                               62.13018445545298                                 33.72289654977898-1277.4913210322i
0.05                                              0.05                                              330                                               61.87147139642875                                 86.17413700104254-1237.4368169237714i
0.05                                              0.05                                              332                                               62.671888950128405                                184.1602459094368-1347.6491128237453i
0.05                                              0.05                                              334                                               62.84309082303001                                 63.24236319650873-1385.8070794436271i
0.05                                              0.05                                              336                                               62.58913207749272                                 28.63007499224328-1346.971860620267i
0.05                                              0.05                                              338                                               62.40712118184434                                 18.824468042122433-1319.203661199526i
0.05                                              0.05                                              340                                               62.26415955434727                                 15.081664087520203-1297.712986729666i
0.05                                              0.05                                              342                                               62.1391536761855                                  13.487916625710012-1279.1855443363222i
0.05                                              0.05                                              344                                               62.02160164347379                                 12.936671291279971-1261.9939269977062i
0.05                                              0.05                                              346                                               61.904938801001734                                13.106810082752345-1245.1534636529495i
0.05                                              0.05                                              348                                               61.78332839823347                                 14.060633052238874-1227.8291652269957i
0.05                                              0.05                                              350                                               61.649168313792856                                16.38873192671211-1208.9783288673505i
0.05                                              0.05                                              352                                               61.49085192377931                                 22.553000947592913-1187.0369150037002i
0.05                                              0.05                                              354                                               61.34312038202421                                 43.59664265534043-1166.4144020227732i
0.05                                              0.05                                              356                                               61.40745259617176                                 47.99015090090166-1174.9263873576572i
0.05                                              0.05                                              358                                               61.15566771895197                                 43.466159467818514-1141.4811724659892i
0.05                                              0.05                                              360                                               60.78043450568161                                 78.2056203122475-1091.2122389800268i
0.05                                              0.05                                              362                                               60.90099377679547                                 221.70929480159353-1086.920102200384i
0.05                                              0.05                                              364                                               62.34825875803648                                 179.08663245203167-1298.1324017046136i
0.05                                              0.05                                              366                                               62.03892960375811                                 67.37051510616571-1262.7846416834545i
0.05                                              0.05                                              368                                               61.689007590917626                                41.520919660227804-1213.9379598619284i
0.05                                              0.05                                              370                                               61.387375564416814                                41.572548653751866-1172.4543478172818i
0.05                                              0.05                                              372                                               61.09710659944768                                 73.16854083520145-1132.2711387028764i
0.05                                              0.05                                              374                                               61.526925333767                                   153.75676019016194-1182.2356105390097i
0.05                                              0.05                                              376                                               61.86730696597913                                 70.94089183890543-1237.807951730717i
0.05                                              0.05                                              378                                               61.625194228145936                                32.83737526304733-1205.309549860998i
0.05                                              0.05                                              380                                               61.43043683086853                                 21.447487713309275-1178.8267262601444i
0.05                                              0.05                                              382                                               61.27711413914557                                 16.907800696814373-1158.2690207864111i
0.05                                              0.05                                              384                                               61.14538540876069                                 14.775696361930327-1140.8613036677236i
0.05                                              0.05                                              386                                               61.024616286094314                                13.7518773425166-1125.1187874409077i
0.05                                              0.05                                              388                                               60.90858811688807                                 13.378410949998596-1110.1914413585507i
0.05                                              0.05                                              390                                               60.792874543410036                                13.502822902115716-1095.4958576006536i
0.05                                              0.05                                              392                                               60.67353832232479                                 14.11363490112138-1080.5375713770031i
0.05                                              0.05                                              394                                               60.54558448786735                                 15.341013246379944-1064.7169010726311i
0.05                                              0.05                                              396                                               60.40234568286799                                 17.561870510670843-1047.264130685648i
0.05                                              0.05                                              398                                               60.23276881538856                                 21.59231034837607-1026.9338343632244i
0.05                                              0.05                                              400                                               60.01659749035844                                 29.496678251952847-1001.4783928865627i
0.05                                              0.05                                              402                                               59.715873648438986                                47.43646192073523-966.6547514803241i
0.05                                              0.05                                              404                                               59.301944528908535                                98.65834622951215-917.4888263510704i
0.05                                              0.05                                              406                                               59.61628499555985                                 265.0537752323201-919.3386623198334i
0.05                                              0.05                                              408                                               61.694661461808025                                259.61774843619446-1187.3878662930902i
0.05                                              0.05                                              410                                               61.506744727365295                                97.6725580670051-1185.4083831189848i
0.05                                              0.05                                              412                                               61.126709849291146                                47.76053863064253-1137.5042198927745i
0.05                                              0.05                                              414                                               60.86059144832593                                 29.99075253198947-1103.7464266404452i
0.05                                              0.05                                              416                                               60.664243516253094                                22.048463690296867-1079.248777977795i
0.05                                              0.05                                              418                                               60.50667208827355                                 17.952380020515324-1059.9156824096851i
0.05                                              0.05                                              420                                               60.37133509426931                                 15.697551561353846-1043.5604855928543i
0.05                                              0.05                                              422                                               60.24864650367736                                 14.544456200514203-1028.93737161148i
0.05                                              0.05                                              424                                               60.13206180909955                                 14.390528272485103-1015.2183627902111i
0.05                                              0.05                                              426                                               60.01795011299457                                 16.10177095977044-1001.9393457408167i
0.05                                              0.05                                              428                                               59.93804234486425                                 22.10214095062534-992.6462104805433i
0.05                                              0.05                                              430                                               59.92000320997698                                 19.374941119671647-990.6428621409609i
0.05                                              0.05                                              432                                               59.82140404281054                                 14.404236098949342-979.5424273414716i
0.05                                              0.05                                              434                                               59.71413635505131                                 12.906315868038396-967.5383376749639i
0.05                                              0.05                                              436                                               59.60895035986496                                 12.539929336119476-955.8949145245288i
0.05                                              0.05                                              438                                               59.50308195429144                                 12.670236536181193-944.3109130742931i
0.05                                              0.05                                              440                                               59.393620305926184                                13.16311698235436-932.47618440512i
0.05                                              0.05                                              442                                               59.2774623315858                                  14.059240600396999-920.0732822948684i
0.05                                              0.05                                              444                                               59.15052209009174                                 15.543783121333743-906.6972444865243i
0.05                                              0.05                                              446                                               59.00654688587909                                 18.06004348939972-891.740098600373i
0.05                                              0.05                                              448                                               58.83512398547545                                 22.712366548417346-874.1977286651096i
0.05                                              0.05                                              450                                               58.62023513081581                                 32.7239179815293-852.4953685669163i
0.05                                              0.05                                              452                                               58.37366206124122                                 59.302147119923745-827.1222945029274i
0.05                                              0.05                                              454                                               58.5588274991825                                  122.52498245105902-838.2053192554679i
0.05                                              0.05                                              456                                               59.2068774288526                                  100.03530301720275-907.2347670927481i
0.05                                              0.05                                              458                                               58.982206433545                                   56.35730396173335-887.6397291161705i
0.05                                              0.05                                              460                                               58.62153359826391                                 48.033505425-851.8976633532645i
0.05                                              0.05                                              462                                               58.21823588075819                                 59.18477089991425-812.3857909336847i
0.05                                              0.05                                              464                                               57.76252016563407                                 100.5041688369818-766.3424512111095i
0.05                                              0.05                                              466                                               57.9074771508877                                  218.59407010510856-754.9000772036055i
0.05                                              0.05                                              468                                               59.71580729157338                                 274.2449359663506-928.1417079633935i
0.05                                              0.05                                              470                                               59.99015804190118                                 166.73027000031638-984.8539934150422i
0.05                                              0.05                                              472                                               59.77307716237234                                 97.48642592237628-969.3230077120222i
0.05                                              0.05                                              474                                               59.43327399931337                                 75.82321137958338-933.7628458586257i
0.05                                              0.05                                              476                                               59.34740626221625                                 66.83317603986664-925.209717209424i
0.05                                              0.05                                              478                                               59.128223368111605                                47.085654431900984-903.2790135990587i
0.05                                              0.05                                              480                                               58.83383009734973                                 44.4522211846128-873.2317659540194i
0.05                                              0.05                                              482                                               58.55375403209094                                 60.95283323244283-844.4213774936355i
0.05                                              0.05                                              484                                               58.6148796732974                                  107.9040256761436-845.7416744433389i
0.05                                              0.05                                              486                                               59.167063805290134                                96.2351402506323-903.4480976859089i
0.05                                              0.05                                              488                                               59.05381848340572                                 51.62263524144226-895.3033158284577i
0.05                                              0.05                                              490                                               58.803522699000446                                34.98373032268165-870.6143057419116i
0.05                                              0.05                                              492                                               58.568679318092066                                30.343947777589918-847.5313993747362i
0.05                                              0.05                                              494                                               58.338027267379374                                32.547325676967546-825.208756394714i
0.05                                              0.05                                              496                                               58.10306148696583                                 44.65918094570116-802.5678104057589i
0.05                                              0.05                                              498                                               58.01836648830195                                 78.86561068870385-792.0931473920405i
0.05                                              0.05                                              500                                               58.507811463238035                                95.16154985189088-836.7583644691372i
0.05                                              0.05                                              502                                               58.56598250412495                                 54.43307010094206-846.0619311071905i
0.05                                              0.05                                              504                                               58.346204952648                                   34.59768577441612-825.9039155840563i
0.05                                              0.05                                              506                                               58.124500091278286                                27.711265903472462-805.3191742690683i
0.05                                              0.05                                              508                                               57.91272458653648                                 25.948853698000406-785.9585848316331i
0.05                                              0.05                                              510                                               57.69550926620174                                 27.197586548010154-766.4824717652376i
0.05                                              0.05                                              512                                               57.45479743462258                                 31.612408405980347-745.3316925503259i
0.05                                              0.05                                              514                                               57.168685460201004                                41.43138840754535-720.6388955266939i
0.05                                              0.05                                              516                                               56.821789713684474                                63.696743835414985-690.6375796815025i
0.05                                              0.05                                              518                                               56.56099396781539                                 119.39372043469922-662.3793367483033i
0.05                                              0.05                                              520                                               57.455365401681384                                222.71846748373997-712.0308605533439i
0.05                                              0.05                                              522                                               58.744402180052305                                182.89875707555547-845.8583236902971i
0.05                                              0.05                                              524                                               58.60755045865864                                 93.26838778118866-846.757070741472i
0.05                                              0.05                                              526                                               58.23975432493059                                 55.64508948136378-814.6610791334311i
0.05                                              0.05                                              528                                               57.91661436690454                                 40.470450323516815-785.6974657668055i
0.05                                              0.05                                              530                                               57.63451596510153                                 34.09813143603617-760.8343052267767i
0.05                                              0.05                                              532                                               57.3693184037348                                  32.064981723928945-738.0000350255876i
0.05                                              0.05                                              534                                               57.10125188776093                                 33.21601570973634-715.4760218906474i
0.05                                              0.05                                              536                                               56.81499975842662                                 38.225361560326874-691.9717301000702i
0.05                                              0.05                                              538                                               56.521572659367806                                50.3919532053022-668.1082017789843i
0.05                                              0.05                                              540                                               56.36971093197761                                 69.72181553502362-654.6914488069914i
0.05                                              0.05                                              542                                               56.233001587471854                                71.4012311452699-644.166951284551i
0.05                                              0.05                                              544                                               55.759916128809536                                76.76255766648708-608.9368061384209i
0.05                                              0.05                                              546                                               55.1054543859739                                  105.10873264297044-559.4215529615936i