% Model:              Piano Soundboard.mph
% Version:            COMSOL 6.0.0.405
% Date:               Dec 26 2022, 11:38
% Table:              Table 1 - Global Evaluation 1
% test_x (m)                                      test_y (m)                                        freq (Hz)                                         Z_in (s/kg)                                       Impedance (1)
0.1                                               0.1                                               349.23                                            196.64908673028938                                3.727133699926931E9-5.686550291820365E9i
0.1                                               0.1                                               440                                               190.32567028218253                                3.276122105098895E9+2.1386895151321417E8i
0.1                                               0.1                                               523.25                                            205.0157510869008                                 1.5855045437034727E10-8.123686618737217E9i
0.1                                               0.1                                               659.25                                            189.15207951921528                                6.605842979955175E8-2.7910558839319983E9i
0.1                                               0.1                                               783.99                                            192.17291171889298                                1.8629859584767468E9-3.6085954347219234E9i
0.1                                               0.18571428571428572                               349.23                                            197.44129560361455                                5.109939376585906E8-7.430881829389701E9i
0.1                                               0.18571428571428572                               440                                               193.5875313153178                                 2.011346057380695E9-4.335606832335207E9i
0.1                                               0.18571428571428572                               523.25                                            194.0581480330882                                 4.830467638402879E9+1.4574041162961874E9i
0.1                                               0.18571428571428572                               659.25                                            187.59815579649236                                3.3756446015615535E8-2.3744486852276807E9i
0.1                                               0.18571428571428572                               783.99                                            198.22996240418988                                5.182959474740132E9-6.29791003390678E9i
0.1                                               0.2714285714285714                                349.23                                            191.81644543057607                                2.334347758208382E9-3.121514970253204E9i
0.1                                               0.2714285714285714                                440                                               190.02128610674495                                2.1514387564540526E8-3.162727698584277E9i
0.1                                               0.2714285714285714                                523.25                                            191.74461505258492                                8.929343621390847E8-3.7611811985897484E9i
0.1                                               0.2714285714285714                                659.25                                            190.50679709731827                                2.800034936950557E8-3.340562367122069E9i
0.1                                               0.2714285714285714                                783.99                                            193.03897119479464                                3.6744583070267467E9-2.5750395878381824E9i
0.1                                               0.3571428571428571                                349.23                                            193.91313607571107                                1.141947326596741E9-4.828809923281355E9i
0.1                                               0.3571428571428571                                440                                               190.84040743647597                                4.707581740686498E8-3.4515813258605976E9i
0.1                                               0.3571428571428571                                523.25                                            192.1093773665584                                 3.0764671546783943E9-2.6054763625822964E9i
0.1                                               0.3571428571428571                                659.25                                            187.57057818966678                                2.4909238072357386E8-2.377709029802452E9i
0.1                                               0.3571428571428571                                783.99                                            190.94196704920637                                1.4744430511437004E9-3.2012756601366982E9i
0.1                                               0.44285714285714284                               349.23                                            196.5036184063805                                 3.1647322137301517E9-5.889826909544726E9i
0.1                                               0.44285714285714284                               440                                               188.1068411982383                                 5.906266729589008E8-2.473435074660072E9i
0.1                                               0.44285714285714284                               523.25                                            204.36420386248932                                7.233873641575021E9-1.486045546294181E10i
0.1                                               0.44285714285714284                               659.25                                            190.05332808456978                                2.966005359214727E8-3.167897973301441E9i
0.1                                               0.44285714285714284                               783.99                                            188.55503636383574                                1.494019543968767E9-2.2220822195970464E9i
0.1                                               0.5285714285714285                                349.23                                            187.47046141766026                                2.232114333459593E9-7.765055890499297E8i
0.1                                               0.5285714285714285                                440                                               189.35555194798786                                2.183192666964604E8-2.9280177694388895E9i
0.1                                               0.5285714285714285                                523.25                                            192.14454743656142                                3.985229801540199E9+7.094057339163555E8i
0.1                                               0.5285714285714285                                659.25                                            188.83725124715608                                2.769919842400496E8-2.7521623135815215E9i
0.1                                               0.5285714285714285                                783.99                                            193.30216201033173                                4.622824032803796E9-1.405871137863809E8i
0.1                                               0.6142857142857142                                349.23                                            200.58520068818885                                5.418515797150841E9-9.223039737695192E9i
0.1                                               0.6142857142857142                                440                                               191.58683189320857                                2.141271610467339E8-3.7900906210907054E9i
0.1                                               0.6142857142857142                                523.25                                            200.32993107738673                                6.705310038018099E9+7.932955139178188E9i
0.1                                               0.6142857142857142                                659.25                                            188.74478171316255                                1.9281280758039716E8-2.729974420145892E9i
0.1                                               0.6142857142857142                                783.99                                            192.26430307417505                                1.3755191252526903E9-3.866699919943388E9i
0.1                                               0.6999999999999998                                349.23                                            198.1348490309836                                 1.2543350205399218E9-7.969456832297397E9i
0.1                                               0.6999999999999998                                440                                               189.22861632322514                                2.2761584313180053E8-2.8845824442882953E9i
0.1                                               0.6999999999999998                                523.25                                            193.3456877682566                                 5.955914605380204E8-4.609879875672963E9i
0.1                                               0.6999999999999998                                659.25                                            190.03337745983126                                2.89581329839147E8-3.161217041450002E9i
0.1                                               0.6999999999999998                                783.99                                            201.17647454676248                                1.0090939756415339E10-5.411695490550368E9i
0.18000000000000002                               0.1                                               349.23                                            184.4858028285391                                 9.789904825307109E8+1.360427234521021E9i
0.18000000000000002                               0.1                                               440                                               187.40762477637705                                1.9990617367818937E9-1.2283393292660074E9i
0.18000000000000002                               0.1                                               523.25                                            191.17282564865565                                1.495701697605189E9+3.2959393743075914E9i
0.18000000000000002                               0.1                                               659.25                                            186.31858539922274                                2.0075142492539907E9+5.0396040074509203E8i
0.18000000000000002                               0.1                                               783.99                                            199.3454718987672                                 9.176939501009905E9+1.339191275918812E9i
0.18000000000000002                               0.18571428571428572                               349.23                                            201.5903562168533                                 6.130511393505112E9-1.0326673917806578E10i
0.18000000000000002                               0.18571428571428572                               440                                               195.8551840282771                                 3.033895911404472E9-5.41300181513661E9i
0.18000000000000002                               0.18571428571428572                               523.25                                            189.89711107499897                                7.757337415037187E8+3.0272282629043837E9i
0.18000000000000002                               0.18571428571428572                               659.25                                            188.76529340307556                                2.329431217105653E9-1.4488429501479683E9i
0.18000000000000002                               0.18571428571428572                               783.99                                            205.4482050436349                                 1.1910544950433697E10-1.4448039858246752E10i
0.18000000000000002                               0.2714285714285714                                349.23                                            185.3165485707322                                 1.7349703517990248E9+6.255042404766514E8i
0.18000000000000002                               0.2714285714285714                                440                                               186.80478708773828                                3.3251585494834584E8-2.1635648414161625E9i
0.18000000000000002                               0.2714285714285714                                523.25                                            191.8918872855026                                 1.5699806201119125E9-3.604777638029046E9i
0.18000000000000002                               0.2714285714285714                                659.25                                            196.95887489424734                                7.004887606784855E9-7.602094777417343E8i
0.18000000000000002                               0.2714285714285714                                783.99                                            195.5336659874646                                 5.369702503185262E9+2.631301932761865E9i
0.18000000000000002                               0.3571428571428571                                349.23                                            198.67899463916075                                6.772245308177763E9+5.282995032901027E9i
0.18000000000000002                               0.3571428571428571                                440                                               191.06938730161536                                5.613460016646739E8-3.532265405761588E9i
0.18000000000000002                               0.3571428571428571                                523.25                                            196.56625472843692                                6.734094470514672E9-8.368485927594791E7i
0.18000000000000002                               0.3571428571428571                                659.25                                            188.00582024465422                                4.968539194744544E8-2.463974662916074E9i
0.18000000000000002                               0.3571428571428571                                783.99                                            188.34290336279278                                2.4549150524397326E9+8.95177161060407E8i
0.18000000000000002                               0.44285714285714284                               349.23                                            198.96794069917038                                7.229162373108776E9-5.156338479034721E9i
0.18000000000000002                               0.44285714285714284                               440                                               188.63542023296944                                3.625174196392062E8-2.678108648979113E9i
0.18000000000000002                               0.44285714285714284                               523.25                                            203.6989127777696                                 1.5052971837846361E10-2.787874063385052E9i
0.18000000000000002                               0.44285714285714284                               659.25                                            194.74790925253055                                2.235213713698142E9-4.984303090720457E9i
0.18000000000000002                               0.44285714285714284                               783.99                                            188.7709603979767                                 2.744968715795978E9+1.919739288768974E7i
0.18000000000000002                               0.5285714285714285                                349.23                                            199.2420590407207                                 6.86688386723161E9-6.068913726345823E9i
0.18000000000000002                               0.5285714285714285                                440                                               179.94048026659547                                5.714682192583629E8-8.12288516612535E8i
0.18000000000000002                               0.5285714285714285                                523.25                                            192.3090590917009                                 1.7039996062591197E9+3.756898063881407E9i
0.18000000000000002                               0.5285714285714285                                659.25                                            190.03831610768287                                6.380482516391647E8-3.1115126331523585E9i
0.18000000000000002                               0.5285714285714285                                783.99                                            180.06618033831927                                9.610777688027576E8+3.0279499275184083E8i
0.18000000000000002                               0.6142857142857142                                349.23                                            199.0816564706257                                 4.803560349196536E9+7.60698784175699E9i
0.18000000000000002                               0.6142857142857142                                440                                               192.76265268488504                                5.489768685849298E8-4.311620730554807E9i
0.18000000000000002                               0.6142857142857142                                523.25                                            194.04908630740383                                1.1783097510060034E9+4.900608932619793E9i
0.18000000000000002                               0.6142857142857142                                659.25                                            191.06120103734867                                7.25163970780329E8-3.498864926143277E9i
0.18000000000000002                               0.6142857142857142                                783.99                                            186.58215579015928                                2.114099291675714E9+2.8761755490718275E8i
0.18000000000000002                               0.6999999999999998                                349.23                                            192.16266033910304                                2.5768259836325927E9+3.132692296638873E9i
0.18000000000000002                               0.6999999999999998                                440                                               184.0961578150121                                 2.838380405950545E8-1.57719965025636E9i
0.18000000000000002                               0.6999999999999998                                523.25                                            200.01160319460814                                4.4170125106568575E9-8.98651941167066E9i
0.18000000000000002                               0.6999999999999998                                659.25                                            199.62633168357493                                6.774322774532724E9-6.772316838822634E9i
0.18000000000000002                               0.6999999999999998                                783.99                                            195.14114595751914                                2.8647405905550623E9+4.945772261330569E9i
0.26                                              0.1                                               349.23                                            182.61474050691848                                3.051275400963515E8-1.3163528525469353E9i
0.26                                              0.1                                               440                                               196.838189710108                                  5.494843046102765E9-4.2535219211766E9i
0.26                                              0.1                                               523.25                                            192.79825213409956                                1.9818642223472056E9+3.8883356581694646E9i
0.26                                              0.1                                               659.25                                            204.4691832945466                                 2.6549288731702533E9-1.6516563014164469E10i
0.26                                              0.1                                               783.99                                            194.11795303384216                                2.471289439678263E9-4.438824425118342E9i
0.26                                              0.18571428571428572                               349.23                                            201.42384204160567                                5.25638364895919E9-1.0543659195437637E10i
0.26                                              0.18571428571428572                               440                                               194.50197657919801                                1.3583440108541937E9+5.133377145937217E9i
0.26                                              0.18571428571428572                               523.25                                            183.483441172608                                  1.1309284121771739E9+9.752961072348739E8i
0.26                                              0.18571428571428572                               659.25                                            209.00487238435744                                1.369021944639891E10-2.4653555311369434E10i
0.26                                              0.18571428571428572                               783.99                                            199.15351733915656                                1.0353458830018076E9-9.012155351478848E9i
0.26                                              0.2714285714285714                                349.23                                            190.2253131668212                                 2.4281496819297094E9-2.1532731961515923E9i
0.26                                              0.2714285714285714                                440                                               199.72463485045225                                5.2972501652582245E9-8.111439619261912E9i
0.26                                              0.2714285714285714                                523.25                                            195.2520464702825                                 2.4067849316816125E9-5.264951858791984E9i
0.26                                              0.2714285714285714                                659.25                                            189.59757603023525                                2.8771380246596155E9+9.149296730678962E8i
0.26                                              0.2714285714285714                                783.99                                            198.44232426079202                                2.372213111936071E9-8.01456320829859E9i
0.26                                              0.3571428571428571                                349.23                                            188.68909921152138                                1.4605088658314219E9-2.293781313908428E9i
0.26                                              0.3571428571428571                                440                                               190.52496006848568                                2.176663868365828E9+2.5587086624986467E9i
0.26                                              0.3571428571428571                                523.25                                            192.20938655175925                                2.019413811199023E9-3.543126434450706E9i
0.26                                              0.3571428571428571                                659.25                                            184.2671319480666                                 9.232424003768029E8-1.348653115469489E9i
0.26                                              0.3571428571428571                                783.99                                            202.70788488079157                                1.043961327469783E10-8.80690460277477E9i
0.26                                              0.44285714285714284                               349.23                                            203.61051200708107                                1.4377215284967327E10+4.789323257899015E9i
0.26                                              0.44285714285714284                               440                                               188.3141178218659                                 1.8006209205675795E9+1.881650226033442E9i
0.26                                              0.44285714285714284                               523.25                                            194.38519105331883                                5.1731342331235695E9+8.289831847156538E8i
0.26                                              0.44285714285714284                               659.25                                            188.82488172950983                                1.1282074389725785E9-2.521211834548641E9i
0.26                                              0.44285714285714284                               783.99                                            201.02710395282367                                6.382459242488368E9-9.270647051192526E9i
0.26                                              0.5285714285714285                                349.23                                            186.06062107973173                                1.3021619374360662E9+1.5301651899241202E9i
0.26                                              0.5285714285714285                                440                                               194.77337830849777                                9.520098235717375E8-5.395242494624755E9i
0.26                                              0.5285714285714285                                523.25                                            180.41015188703187                                9.282851267770374E8-4.8716629537543154E8i
0.26                                              0.5285714285714285                                659.25                                            196.45182677894758                                1.2038850864920697E9-6.536534493154477E9i
0.26                                              0.5285714285714285                                783.99                                            192.47990408971563                                1.8713151552185934E9-3.7681398943857303E9i
0.26                                              0.6142857142857142                                349.23                                            191.01690038664165                                1.15580322944045E9+3.3619129986404705E9i
0.26                                              0.6142857142857142                                440                                               206.37226063519114                                6.907250717688728E9+1.9647556598229248E10i
0.26                                              0.6142857142857142                                523.25                                            184.4694130397325                                 1.0662608072585663E9+1.289065920156474E9i
0.26                                              0.6142857142857142                                659.25                                            195.35898641107622                                9.211649045616106E8-5.787852169156443E9i
0.26                                              0.6142857142857142                                783.99                                            188.76735169319792                                1.6415666106607585E9-2.1986864657345543E9i
0.26                                              0.6999999999999998                                349.23                                            187.36400795119152                                1.1671267947052422E9+2.0218478965068147E9i
0.26                                              0.6999999999999998                                440                                               191.9915720040742                                 9.76945090677234E8-3.8553577421007166E9i
0.26                                              0.6999999999999998                                523.25                                            211.01239143392303                                3.3108906075834457E10+1.2896623093271925E10i
0.26                                              0.6999999999999998                                659.25                                            199.7845147146301                                 1.648967208924413E9-9.614585698399591E9i
0.26                                              0.6999999999999998                                783.99                                            194.65103676586173                                3.726643189597893E9-3.910673357875451E9i
0.3400000000000001                                0.1                                               349.23                                            187.19379036874298                                2.113092095143221E9-8.805781950584313E8i
0.3400000000000001                                0.1                                               440                                               191.2784004803793                                 7.253043261766148E8-3.591189038845783E9i